 Entering Gaussian System, Link 0=g09
 Initial command:
 /usr/local/gaussian09d01/g09/l1.exe "/scr/Gau-914.inp" -scrdir="/scr/"
 Entering Link 1 = /usr/local/gaussian09d01/g09/l1.exe PID=       915.
  
 Copyright (c) 1988,1990,1992,1993,1995,1998,2003,2009,2013,
            Gaussian, Inc.  All Rights Reserved.
  
 This is part of the Gaussian(R) 09 program.  It is based on
 the Gaussian(R) 03 system (copyright 2003, Gaussian, Inc.),
 the Gaussian(R) 98 system (copyright 1998, Gaussian, Inc.),
 the Gaussian(R) 94 system (copyright 1995, Gaussian, Inc.),
 the Gaussian 92(TM) system (copyright 1992, Gaussian, Inc.),
 the Gaussian 90(TM) system (copyright 1990, Gaussian, Inc.),
 the Gaussian 88(TM) system (copyright 1988, Gaussian, Inc.),
 the Gaussian 86(TM) system (copyright 1986, Carnegie Mellon
 University), and the Gaussian 82(TM) system (copyright 1983,
 Carnegie Mellon University). Gaussian is a federally registered
 trademark of Gaussian, Inc.
  
 This software contains proprietary and confidential information,
 including trade secrets, belonging to Gaussian, Inc.
  
 This software is provided under written license and may be
 used, copied, transmitted, or stored only in accord with that
 written license.
  
 The following legend is applicable only to US Government
 contracts under FAR:
  
                    RESTRICTED RIGHTS LEGEND
  
 Use, reproduction and disclosure by the US Government is
 subject to restrictions as set forth in subparagraphs (a)
 and (c) of the Commercial Computer Software - Restricted
 Rights clause in FAR 52.227-19.
  
 Gaussian, Inc.
 340 Quinnipiac St., Bldg. 40, Wallingford CT 06492
  
  
 ---------------------------------------------------------------
 Warning -- This program may not be used in any manner that
 competes with the business of Gaussian, Inc. or will provide
 assistance to any competitor of Gaussian, Inc.  The licensee
 of this program is prohibited from giving any competitor of
 Gaussian, Inc. access to this program.  By using this program,
 the user acknowledges that Gaussian, Inc. is engaged in the
 business of creating and licensing software in the field of
 computational chemistry and represents and warrants to the
 licensee that it is not a competitor of Gaussian, Inc. and that
 it will not use this program in any manner prohibited above.
 ---------------------------------------------------------------
  

 Cite this work as:
 Gaussian 09, Revision D.01,
 M. J. Frisch, G. W. Trucks, H. B. Schlegel, G. E. Scuseria, 
 M. A. Robb, J. R. Cheeseman, G. Scalmani, V. Barone, B. Mennucci, 
 G. A. Petersson, H. Nakatsuji, M. Caricato, X. Li, H. P. Hratchian, 
 A. F. Izmaylov, J. Bloino, G. Zheng, J. L. Sonnenberg, M. Hada, 
 M. Ehara, K. Toyota, R. Fukuda, J. Hasegawa, M. Ishida, T. Nakajima, 
 Y. Honda, O. Kitao, H. Nakai, T. Vreven, J. A. Montgomery, Jr., 
 J. E. Peralta, F. Ogliaro, M. Bearpark, J. J. Heyd, E. Brothers, 
 K. N. Kudin, V. N. Staroverov, T. Keith, R. Kobayashi, J. Normand, 
 K. Raghavachari, A. Rendell, J. C. Burant, S. S. Iyengar, J. Tomasi, 
 M. Cossi, N. Rega, J. M. Millam, M. Klene, J. E. Knox, J. B. Cross, 
 V. Bakken, C. Adamo, J. Jaramillo, R. Gomperts, R. E. Stratmann, 
 O. Yazyev, A. J. Austin, R. Cammi, C. Pomelli, J. W. Ochterski, 
 R. L. Martin, K. Morokuma, V. G. Zakrzewski, G. A. Voth, 
 P. Salvador, J. J. Dannenberg, S. Dapprich, A. D. Daniels, 
 O. Farkas, J. B. Foresman, J. V. Ortiz, J. Cioslowski, 
 and D. J. Fox, Gaussian, Inc., Wallingford CT, 2013.
 
 ******************************************
 Gaussian 09:  ES64L-G09RevD.01 24-Apr-2013
                 3-Jan-2020 
 ******************************************
 %chk=h2o_MO.chk
 %nproc=4
 Will use up to    4 processors via shared memory.
 %mem=100MW
 ----------------------------------------------------------------------
 #p HF/6-31G guess=read scf=(xqc,maxcon=128,maxcyc=512,conver=8) force 
 IOp(1/10=10) IOp(1/18=10) IOp(2/15=3) IOp(2/12=1)
 ----------------------------------------------------------------------
 1/10=10,18=10,30=1,38=1/1,3;
 2/12=1,15=3,17=6,18=5,40=1/2;
 3/5=1,6=6,11=9,16=1,25=1,30=1,71=1,116=-2/1,2,3;
 4/5=1/1;
 5/5=2,6=8,7=512,8=3,13=1,38=6,85=128/2,8;
 6/7=2,8=2,9=2,10=2,28=1/1;
 7/29=1/1,2,3,16;
 1/10=10,18=10,30=1/3;
 99//99;
 Leave Link    1 at Fri Jan  3 19:17:26 2020, MaxMem=   104857600 cpu:         0.2
 (Enter /usr/local/gaussian09d01/g09/l101.exe)
 ----------------------------
 force calculation: 1 0 0 0 0
 ----------------------------
 Symbolic Z-matrix:
 Charge =  0 Multiplicity = 1
 O                    0    -0.7438   -0.0203   -0.39749 
 H                    0    -1.24114   0.63647   0.07484 
 H                    0    -1.31302  -0.61617  -0.86944 
 
 NAtoms=      3 NQM=        3 NQMF=       0 NMMI=      0 NMMIF=      0
                NMic=       0 NMicF=      0.
                    Isotopes and Nuclear Properties:
 (Nuclear quadrupole moments (NQMom) in fm**2, nuclear magnetic moments (NMagM)
  in nuclear magnetons)

  Atom         1           2           3
 IAtWgt=          16           1           1
 AtmWgt=  15.9949146   1.0078250   1.0078250
 NucSpn=           0           1           1
 AtZEff=   0.0000000   0.0000000   0.0000000
 NQMom=    0.0000000   0.0000000   0.0000000
 NMagM=    0.0000000   2.7928460   2.7928460
 AtZNuc=   8.0000000   1.0000000   1.0000000
 Leave Link  101 at Fri Jan  3 19:17:26 2020, MaxMem=   104857600 cpu:         0.2
 (Enter /usr/local/gaussian09d01/g09/l103.exe)

 GradGradGradGradGradGradGradGradGradGradGradGradGradGradGradGradGradGrad
 Berny optimization.
 Initialization pass.
 Trust Radius=1.00D-01 FncErr=1.00D-07 GrdErr=1.00D-07
 Number of steps in this run=      2 maximum allowed number of steps=      2.
 GradGradGradGradGradGradGradGradGradGradGradGradGradGradGradGradGradGrad

 Leave Link  103 at Fri Jan  3 19:17:26 2020, MaxMem=   104857600 cpu:         0.1
 (Enter /usr/local/gaussian09d01/g09/l202.exe)
                          Input orientation:                          
 ---------------------------------------------------------------------
 Center     Atomic      Atomic             Coordinates (Angstroms)
 Number     Number       Type             X           Y           Z
 ---------------------------------------------------------------------
      1          8           0       -0.743800   -0.020303   -0.397491
      2          1           0       -1.241139    0.636471    0.074844
      3          1           0       -1.313015   -0.616168   -0.869440
 ---------------------------------------------------------------------
                    Distance matrix (angstroms):
                    1          2          3
     1  O    0.000000
     2  H    0.949631   0.000000
     3  H    0.949631   1.570333   0.000000
 Symmetry turned off by external request.
 Stoichiometry    H2O
 Rotational constants (GHZ):    989.5264436    406.7042762    288.2364858
 Leave Link  202 at Fri Jan  3 19:17:26 2020, MaxMem=   104857600 cpu:         0.0
 (Enter /usr/local/gaussian09d01/g09/l301.exe)
 Standard basis: 6-31G (6D, 7F)
 Ernie: Thresh=  0.10000D-02 Tol=  0.10000D-05 Strict=F.
    13 basis functions,    30 primitive gaussians,    13 cartesian basis functions
     5 alpha electrons        5 beta electrons
       nuclear repulsion energy         9.2529098954 Hartrees.
 IExCor=    0 DFT=F Ex=HF Corr=None ExCW=0 ScaHFX=  1.000000
 ScaDFX=  1.000000  1.000000  1.000000  1.000000 ScalE2=  1.000000  1.000000
 IRadAn=      0 IRanWt=     -1 IRanGd=            0 ICorTp=0 IEmpDi=  4
 NAtoms=    3 NActive=    3 NUniq=    3 SFac= 1.00D+00 NAtFMM=   60 NAOKFM=F Big=F
 Integral buffers will be    131072 words long.
 Raffenetti 1 integral format.
 Two-electron integral symmetry is turned off.
 Leave Link  301 at Fri Jan  3 19:17:26 2020, MaxMem=   104857600 cpu:         0.1
 (Enter /usr/local/gaussian09d01/g09/l302.exe)
 NPDir=0 NMtPBC=     1 NCelOv=     1 NCel=       1 NClECP=     1 NCelD=      1
         NCelK=      1 NCelE2=     1 NClLst=     1 CellRange=     0.0.
 One-electron integrals computed using PRISM.
 NBasis=    13 RedAO= T EigKep=  6.86D-02  NBF=    13
 NBsUse=    13 1.00D-06 EigRej= -1.00D+00 NBFU=    13
 Leave Link  302 at Fri Jan  3 19:17:26 2020, MaxMem=   104857600 cpu:         0.2
 (Enter /usr/local/gaussian09d01/g09/l303.exe)
 DipDrv:  MaxL=1.
 Leave Link  303 at Fri Jan  3 19:17:26 2020, MaxMem=   104857600 cpu:         0.1
 (Enter /usr/local/gaussian09d01/g09/l401.exe)
 Initial guess from the checkpoint file:  "h2o_MO.chk"
 B after Tr=    -0.000041    0.000002    0.000000
         Rot=    1.000000    0.000000    0.000000    0.000000 Ang=   0.00 deg.
 Guess basis will be translated and rotated to current coordinates.
 JPrj=2 DoOrth=T DoCkMO=T.
 Leave Link  401 at Fri Jan  3 19:17:26 2020, MaxMem=   104857600 cpu:         0.2
 (Enter /usr/local/gaussian09d01/g09/l502.exe)
 Closed shell SCF:
 Using DIIS extrapolation, IDIIS=  1040.
 Two-electron integral symmetry not used.
 Keep R1 ints in memory in canonical form, NReq=829048.
 IVT=       20131 IEndB=       20131 NGot=   104857600 MDV=   104833284
 LenX=   104833284 LenY=   104832402
 Requested convergence on RMS density matrix=1.00D-08 within 128 cycles.
 Requested convergence on MAX density matrix=1.00D-06.
 Requested convergence on             energy=1.00D-06.
 No special actions if energy rises.
 FoFCou: FMM=F IPFlag=           0 FMFlag=           0 FMFlg1=           0
         NFxFlg=           0 DoJE=F BraDBF=F KetDBF=F FulRan=T
         wScrn=  0.000000 ICntrl=     600 IOpCl=  0 I1Cent=           0 NGrid=           0
         NMat0=    1 NMatS0=     91 NMatT0=    0 NMatD0=    1 NMtDS0=    0 NMtDT0=    0
 Symmetry not used in FoFCou.

 Cycle   1  Pass 1  IDiag  1:
 E= -75.9853591684056    
 DIIS: error= 6.78D-06 at cycle   1 NSaved=   1.
 NSaved= 1 IEnMin= 1 EnMin= -75.9853591684056     IErMin= 1 ErrMin= 6.78D-06
 ErrMax= 6.78D-06  0.00D+00 EMaxC= 1.00D-01 BMatC= 6.14D-10 BMatP= 6.14D-10
 IDIUse=1 WtCom= 1.00D+00 WtEn= 0.00D+00
 Coeff-Com:  0.100D+01
 Coeff:      0.100D+01
 Gap=     0.705 Goal=   None    Shift=    0.000
 RMSDP=2.14D-06 MaxDP=1.00D-05              OVMax= 9.20D-06

 Cycle   2  Pass 1  IDiag  1:
 E= -75.9853591691682     Delta-E=       -0.000000000763 Rises=F Damp=F
 DIIS: error= 2.75D-06 at cycle   2 NSaved=   2.
 NSaved= 2 IEnMin= 2 EnMin= -75.9853591691682     IErMin= 2 ErrMin= 2.75D-06
 ErrMax= 2.75D-06  0.00D+00 EMaxC= 1.00D-01 BMatC= 9.92D-11 BMatP= 6.14D-10
 IDIUse=1 WtCom= 1.00D+00 WtEn= 0.00D+00
 Coeff-Com:  0.111D+00 0.889D+00
 Coeff:      0.111D+00 0.889D+00
 Gap=     0.705 Goal=   None    Shift=    0.000
 RMSDP=6.59D-07 MaxDP=2.73D-06 DE=-7.63D-10 OVMax= 1.94D-06

 Cycle   3  Pass 1  IDiag  1:
 E= -75.9853591692598     Delta-E=       -0.000000000092 Rises=F Damp=F
 DIIS: error= 1.05D-06 at cycle   3 NSaved=   3.
 NSaved= 3 IEnMin= 3 EnMin= -75.9853591692598     IErMin= 3 ErrMin= 1.05D-06
 ErrMax= 1.05D-06  0.00D+00 EMaxC= 1.00D-01 BMatC= 1.30D-11 BMatP= 9.92D-11
 IDIUse=1 WtCom= 1.00D+00 WtEn= 0.00D+00
 Coeff-Com: -0.117D+00 0.146D+00 0.971D+00
 Coeff:     -0.117D+00 0.146D+00 0.971D+00
 Gap=     0.705 Goal=   None    Shift=    0.000
 RMSDP=3.86D-07 MaxDP=1.55D-06 DE=-9.16D-11 OVMax= 2.46D-06

 Cycle   4  Pass 1  IDiag  1:
 E= -75.9853591692802     Delta-E=       -0.000000000020 Rises=F Damp=F
 DIIS: error= 2.06D-07 at cycle   4 NSaved=   4.
 NSaved= 4 IEnMin= 4 EnMin= -75.9853591692802     IErMin= 4 ErrMin= 2.06D-07
 ErrMax= 2.06D-07  0.00D+00 EMaxC= 1.00D-01 BMatC= 5.05D-13 BMatP= 1.30D-11
 IDIUse=1 WtCom= 1.00D+00 WtEn= 0.00D+00
 Coeff-Com:  0.490D-01-0.117D+00-0.385D+00 0.145D+01
 Coeff:      0.490D-01-0.117D+00-0.385D+00 0.145D+01
 Gap=     0.705 Goal=   None    Shift=    0.000
 RMSDP=1.41D-07 MaxDP=4.25D-07 DE=-2.03D-11 OVMax= 9.64D-07

 Cycle   5  Pass 1  IDiag  1:
 E= -75.9853591692816     Delta-E=       -0.000000000001 Rises=F Damp=F
 DIIS: error= 2.98D-08 at cycle   5 NSaved=   5.
 NSaved= 5 IEnMin= 5 EnMin= -75.9853591692816     IErMin= 5 ErrMin= 2.98D-08
 ErrMax= 2.98D-08  0.00D+00 EMaxC= 1.00D-01 BMatC= 1.09D-14 BMatP= 5.05D-13
 IDIUse=1 WtCom= 1.00D+00 WtEn= 0.00D+00
 Coeff-Com: -0.130D-01 0.331D-01 0.104D+00-0.485D+00 0.136D+01
 Coeff:     -0.130D-01 0.331D-01 0.104D+00-0.485D+00 0.136D+01
 Gap=     0.705 Goal=   None    Shift=    0.000
 RMSDP=2.02D-08 MaxDP=8.66D-08 DE=-1.42D-12 OVMax= 1.30D-07

 Cycle   6  Pass 1  IDiag  1:
 E= -75.9853591692816     Delta-E=        0.000000000000 Rises=F Damp=F
 DIIS: error= 6.21D-09 at cycle   6 NSaved=   6.
 NSaved= 6 IEnMin= 6 EnMin= -75.9853591692816     IErMin= 6 ErrMin= 6.21D-09
 ErrMax= 6.21D-09  0.00D+00 EMaxC= 1.00D-01 BMatC= 4.12D-16 BMatP= 1.09D-14
 IDIUse=1 WtCom= 1.00D+00 WtEn= 0.00D+00
 Coeff-Com:  0.164D-02-0.414D-02-0.144D-01 0.825D-01-0.410D+00 0.134D+01
 Coeff:      0.164D-02-0.414D-02-0.144D-01 0.825D-01-0.410D+00 0.134D+01
 Gap=     0.705 Goal=   None    Shift=    0.000
 RMSDP=2.97D-09 MaxDP=1.64D-08 DE=-1.42D-14 OVMax= 1.54D-08

 SCF Done:  E(RHF) =  -75.9853591693     A.U. after    6 cycles
            NFock=  6  Conv=0.30D-08     -V/T= 1.9996
 KE= 7.601465784242D+01 PE=-1.991333383517D+02 EE= 3.788041144467D+01
 Leave Link  502 at Fri Jan  3 19:17:26 2020, MaxMem=   104857600 cpu:         0.2
 (Enter /usr/local/gaussian09d01/g09/l508.exe)
 QCSCF skips out because SCF is already converged.
 Leave Link  508 at Fri Jan  3 19:17:26 2020, MaxMem=   104857600 cpu:         0.0
 (Enter /usr/local/gaussian09d01/g09/l601.exe)
 Copying SCF densities to generalized density rwf, IOpCl= 0 IROHF=0.

 **********************************************************************

            Population analysis using the SCF density.

 **********************************************************************

 Alpha  occ. eigenvalues --  -20.55348  -1.35253  -0.72638  -0.54824  -0.49830
 Alpha virt. eigenvalues --    0.20699   0.30291   1.10546   1.16122   1.16717
 Alpha virt. eigenvalues --    1.20464   1.38894   1.67610
          Condensed to atoms (all electrons):
               1          2          3
     1  O    8.283345   0.263947   0.263947
     2  H    0.263947   0.358348  -0.027916
     3  H    0.263947  -0.027916   0.358348
 Mulliken charges:
               1
     1  O   -0.811240
     2  H    0.405620
     3  H    0.405620
 Sum of Mulliken charges =   0.00000
 Mulliken charges with hydrogens summed into heavy atoms:
               1
     1  O    0.000000
 Electronic spatial extent (au):  <R**2>=             47.2891
 Charge=              0.0000 electrons
 Dipole moment (field-independent basis, Debye):
    X=             -2.4965    Y=              0.1426    Z=              0.0009  Tot=              2.5006
 Quadrupole moment (field-independent basis, Debye-Ang):
   XX=             -2.0519   YY=             -5.0979   ZZ=             -6.0032
   XY=             -0.0162   XZ=              1.0819   YZ=              1.5248
 Traceless Quadrupole moment (field-independent basis, Debye-Ang):
   XX=              2.3324   YY=             -0.7135   ZZ=             -1.6189
   XY=             -0.0162   XZ=              1.0819   YZ=              1.5248
 Octapole moment (field-independent basis, Debye-Ang**2):
  XXX=              9.1683  YYY=              0.3872  ZZZ=              7.1583  XYY=              3.3441
  XXY=             -0.0152  XXZ=              0.6138  XZZ=              3.8909  YZZ=             -1.1063
  YYZ=              2.0301  XYZ=             -1.7638
 Hexadecapole moment (field-independent basis, Debye-Ang**3):
 XXXX=            -22.1595 YYYY=             -5.6617 ZZZZ=            -11.3005 XXXY=              0.0510
 XXXZ=             -3.3050 YYYX=             -0.3095 YYYZ=             -0.0753 ZZZX=             -5.0044
 ZZZY=              0.4416 XXYY=             -3.7554 XXZZ=             -5.0465 YYZZ=             -2.4489
 XXYZ=              1.9847 YYXZ=             -1.3286 ZZXY=              1.3161
 N-N= 9.252909895358D+00 E-N=-1.991333383762D+02  KE= 7.601465784242D+01
 No NMR shielding tensors so no spin-rotation constants.
 Leave Link  601 at Fri Jan  3 19:17:27 2020, MaxMem=   104857600 cpu:         0.2
 (Enter /usr/local/gaussian09d01/g09/l701.exe)
 Compute integral first derivatives.
 ... and contract with generalized density number  0.
 Leave Link  701 at Fri Jan  3 19:17:27 2020, MaxMem=   104857600 cpu:         0.2
 (Enter /usr/local/gaussian09d01/g09/l702.exe)
 L702 exits ... SP integral derivatives will be done elsewhere.
 Leave Link  702 at Fri Jan  3 19:17:27 2020, MaxMem=   104857600 cpu:         0.1
 (Enter /usr/local/gaussian09d01/g09/l703.exe)
 Compute integral first derivatives, UseDBF=F ICtDFT=           0.
 Integral derivatives from FoFJK, PRISM(SPDF).
 Calling FoFJK, ICntrl=      2127 FMM=F ISym2X=0 I1Cent= 0 IOpClX= 0 NMat=1 NMatS=1 NMatT=0.
 FoFJK:  IHMeth= 1 ICntrl=    2127 DoSepK=F KAlg= 0 I1Cent=   0 FoldK=F
 IRaf=         0 NMat=   1 IRICut=       1 DoRegI=T DoRafI=F ISym2E= 0.
 FoFCou: FMM=F IPFlag=           0 FMFlag=      100000 FMFlg1=         800
         NFxFlg=           0 DoJE=F BraDBF=F KetDBF=F FulRan=T
         wScrn=  0.000000 ICntrl=    2127 IOpCl=  0 I1Cent=           0 NGrid=           0
         NMat0=    1 NMatS0=      1 NMatT0=    0 NMatD0=    1 NMtDS0=    0 NMtDT0=    0
 Symmetry not used in FoFCou.
 Leave Link  703 at Fri Jan  3 19:17:27 2020, MaxMem=   104857600 cpu:         0.2
 (Enter /usr/local/gaussian09d01/g09/l716.exe)
 Dipole        =-9.82200177D-01 5.60909457D-02 3.55450077D-04
 -------------------------------------------------------------------
 Center     Atomic                   Forces (Hartrees/Bohr)
 Number     Number              X              Y              Z
 -------------------------------------------------------------------
      1        8           0.000000069   -0.000000004    0.000000000
      2        1          -0.000000029    0.000000109    0.000000080
      3        1          -0.000000041   -0.000000104   -0.000000080
 -------------------------------------------------------------------
 Cartesian Forces:  Max     0.000000109 RMS     0.000000069
 Z-matrix is all fixed cartesians, so copy forces.
 Force constants in Cartesian coordinates: 
                1             2             3             4             5 
      1  0.501398D+00
      2  0.297233D-03  0.504177D+00
      3  0.215570D-01  0.378848D+00  0.285581D+00
      4 -0.228258D+00  0.213217D+00  0.150498D+00  0.194437D+00
      5  0.176293D+00 -0.274423D+00 -0.198699D+00 -0.192248D+00  0.284314D+00
      6  0.122754D+00 -0.197127D+00 -0.142897D+00 -0.136181D+00  0.205452D+00
      7 -0.273140D+00 -0.213514D+00 -0.172055D+00  0.338213D-01  0.159545D-01
      8 -0.176590D+00 -0.229754D+00 -0.180150D+00 -0.209690D-01 -0.989173D-02
      9 -0.144311D+00 -0.181721D+00 -0.142684D+00 -0.143170D-01 -0.675374D-02
                6             7             8             9 
      6  0.148581D+00
      7  0.134272D-01  0.239318D+00
      8 -0.832478D-02  0.197559D+00  0.239646D+00
      9 -0.568388D-02  0.158628D+00  0.188475D+00  0.148368D+00
 Leave Link  716 at Fri Jan  3 19:17:27 2020, MaxMem=   104857600 cpu:         0.1
 (Enter /usr/local/gaussian09d01/g09/l103.exe)

 GradGradGradGradGradGradGradGradGradGradGradGradGradGradGradGradGradGrad
 Berny optimization.
 Search for a local minimum.
 Step number   1 out of a maximum of    2
 All quantities printed in internal units (Hartrees-Bohrs-Radians)
 Second derivative matrix not updated -- unit matrix used.
 ITU=  0
 Angle between quadratic step and forces=  90.00 degrees.
 Linear search not attempted -- first point.
 TrRot=  0.000000  0.000000  0.000000  0.000000  0.000000  0.000000
 Variable       Old X    -DE/DX   Delta X   Delta X   Delta X     New X
                                 (Linear)    (Quad)   (Total)
    X1       -1.40558   0.00000   0.00000   0.00000   0.00000  -1.40558
    Y1       -0.03837   0.00000   0.00000   0.00000   0.00000  -0.03837
    Z1       -0.75115   0.00000   0.00000   0.00000   0.00000  -0.75115
    X2       -2.34541   0.00000   0.00000   0.00000   0.00000  -2.34541
    Y2        1.20276   0.00000   0.00000   0.00000   0.00000   1.20276
    Z2        0.14144   0.00000   0.00000   0.00000   0.00000   0.14144
    X3       -2.48124   0.00000   0.00000   0.00000   0.00000  -2.48124
    Y3       -1.16439   0.00000   0.00000   0.00000   0.00000  -1.16439
    Z3       -1.64300   0.00000   0.00000   0.00000   0.00000  -1.64300
         Item               Value     Threshold  Converged?
 Maximum Force            0.000000     0.000450     YES
 RMS     Force            0.000000     0.000300     YES
 Maximum Displacement     0.000000     0.001800     YES
 RMS     Displacement     0.000000     0.001200     YES
 Predicted change in Energy=-2.146388D-14
 Optimization completed.
    -- Stationary point found.
 GradGradGradGradGradGradGradGradGradGradGradGradGradGradGradGradGradGrad

 Leave Link  103 at Fri Jan  3 19:17:27 2020, MaxMem=   104857600 cpu:         0.0
 (Enter /usr/local/gaussian09d01/g09/l9999.exe)

 Test job not archived.
 1\1\GINC-KA17\Force\RHF\6-31G\H2O1\RTAKE\03-Jan-2020\0\\#p HF/6-31G gu
 ess=read scf=(xqc,maxcon=128,maxcyc=512,conver=8) force IOp(1/10=10) I
 Op(1/18=10) IOp(2/15=3) IOp(2/12=1)\\force calculation: 1 0 0 0 0\\0,1
 \O,-0.7437998226,-0.0203027315,-0.397490659\H,-1.2411385848,0.63647119
 17,0.0748443099\H,-1.3130153676,-0.6161684601,-0.8694396509\\Version=E
 S64L-G09RevD.01\HF=-75.9853592\RMSD=2.969e-09\RMSF=6.906e-08\Dipole=-0
 .9822002,0.0560909,0.0003555\Quadrupole=1.734091,-0.5305046,-1.2035864
 ,-0.0120337,0.8043643,1.1336865\PG=Unknown\\@


 CONFIDENCE IS WHAT YOU FEEL BEFORE YOU FULLY
 COMPREHEND THE SITUATION.
 Job cpu time:       0 days  0 hours  0 minutes  2.2 seconds.
 File lengths (MBytes):  RWF=      5 Int=      0 D2E=      0 Chk=      1 Scr=      1
 Normal termination of Gaussian 09 at Fri Jan  3 19:17:27 2020.
