 Entering Gaussian System, Link 0=g09
 Initial command:
 /usr/local/gaussian09d01/g09/l1.exe "/scr/Gau-2288.inp" -scrdir="/scr/"
 Entering Link 1 = /usr/local/gaussian09d01/g09/l1.exe PID=      2289.
  
 Copyright (c) 1988,1990,1992,1993,1995,1998,2003,2009,2013,
            Gaussian, Inc.  All Rights Reserved.
  
 This is part of the Gaussian(R) 09 program.  It is based on
 the Gaussian(R) 03 system (copyright 2003, Gaussian, Inc.),
 the Gaussian(R) 98 system (copyright 1998, Gaussian, Inc.),
 the Gaussian(R) 94 system (copyright 1995, Gaussian, Inc.),
 the Gaussian 92(TM) system (copyright 1992, Gaussian, Inc.),
 the Gaussian 90(TM) system (copyright 1990, Gaussian, Inc.),
 the Gaussian 88(TM) system (copyright 1988, Gaussian, Inc.),
 the Gaussian 86(TM) system (copyright 1986, Carnegie Mellon
 University), and the Gaussian 82(TM) system (copyright 1983,
 Carnegie Mellon University). Gaussian is a federally registered
 trademark of Gaussian, Inc.
  
 This software contains proprietary and confidential information,
 including trade secrets, belonging to Gaussian, Inc.
  
 This software is provided under written license and may be
 used, copied, transmitted, or stored only in accord with that
 written license.
  
 The following legend is applicable only to US Government
 contracts under FAR:
  
                    RESTRICTED RIGHTS LEGEND
  
 Use, reproduction and disclosure by the US Government is
 subject to restrictions as set forth in subparagraphs (a)
 and (c) of the Commercial Computer Software - Restricted
 Rights clause in FAR 52.227-19.
  
 Gaussian, Inc.
 340 Quinnipiac St., Bldg. 40, Wallingford CT 06492
  
  
 ---------------------------------------------------------------
 Warning -- This program may not be used in any manner that
 competes with the business of Gaussian, Inc. or will provide
 assistance to any competitor of Gaussian, Inc.  The licensee
 of this program is prohibited from giving any competitor of
 Gaussian, Inc. access to this program.  By using this program,
 the user acknowledges that Gaussian, Inc. is engaged in the
 business of creating and licensing software in the field of
 computational chemistry and represents and warrants to the
 licensee that it is not a competitor of Gaussian, Inc. and that
 it will not use this program in any manner prohibited above.
 ---------------------------------------------------------------
  

 Cite this work as:
 Gaussian 09, Revision D.01,
 M. J. Frisch, G. W. Trucks, H. B. Schlegel, G. E. Scuseria, 
 M. A. Robb, J. R. Cheeseman, G. Scalmani, V. Barone, B. Mennucci, 
 G. A. Petersson, H. Nakatsuji, M. Caricato, X. Li, H. P. Hratchian, 
 A. F. Izmaylov, J. Bloino, G. Zheng, J. L. Sonnenberg, M. Hada, 
 M. Ehara, K. Toyota, R. Fukuda, J. Hasegawa, M. Ishida, T. Nakajima, 
 Y. Honda, O. Kitao, H. Nakai, T. Vreven, J. A. Montgomery, Jr., 
 J. E. Peralta, F. Ogliaro, M. Bearpark, J. J. Heyd, E. Brothers, 
 K. N. Kudin, V. N. Staroverov, T. Keith, R. Kobayashi, J. Normand, 
 K. Raghavachari, A. Rendell, J. C. Burant, S. S. Iyengar, J. Tomasi, 
 M. Cossi, N. Rega, J. M. Millam, M. Klene, J. E. Knox, J. B. Cross, 
 V. Bakken, C. Adamo, J. Jaramillo, R. Gomperts, R. E. Stratmann, 
 O. Yazyev, A. J. Austin, R. Cammi, C. Pomelli, J. W. Ochterski, 
 R. L. Martin, K. Morokuma, V. G. Zakrzewski, G. A. Voth, 
 P. Salvador, J. J. Dannenberg, S. Dapprich, A. D. Daniels, 
 O. Farkas, J. B. Foresman, J. V. Ortiz, J. Cioslowski, 
 and D. J. Fox, Gaussian, Inc., Wallingford CT, 2013.
 
 ******************************************
 Gaussian 09:  ES64L-G09RevD.01 24-Apr-2013
                 9-Feb-2020 
 ******************************************
 %chk=h2o_MO.chk
 %nproc=4
 Will use up to    4 processors via shared memory.
 %mem=100MW
 ----------------------------------------------------------------------
 #p HF/6-31G guess=read scf=(xqc,maxcon=128,maxcyc=512,conver=8) freq=n
 oraman IOp(7/8=20000) IOp(1/10=10) IOp(1/18=10) IOp(2/15=3) IOp(2/12=1
 )
 ----------------------------------------------------------------------
 1/10=10,18=10,30=1,38=1/1,3;
 2/12=1,15=3,17=6,18=5,40=1/2;
 3/5=1,6=6,11=9,16=1,25=1,30=1,71=2,116=-2,140=1/1,2,3;
 4/5=1/1;
 5/5=2,6=8,7=512,8=3,13=1,38=6,85=128,98=1/2,8;
 8/6=4,10=90,11=11/1;
 11/6=1,8=1,9=11,15=111,16=1/1,2,10;
 10/6=1/2;
 6/7=2,8=2,9=2,10=2,18=1,28=1/1;
 7/8=20000,10=1,25=1/1,2,3,16;
 1/10=10,18=10,30=1/3;
 99//99;
 Leave Link    1 at Sun Feb  9 21:17:03 2020, MaxMem=   104857600 cpu:         0.1
 (Enter /usr/local/gaussian09d01/g09/l101.exe)
 --------------------------------
 frequency calculation: 1 0 0 0 0
 --------------------------------
 Symbolic Z-matrix:
 Charge =  0 Multiplicity = 1
 O                    0    -1.15882   0.00342  -0.39736 
 H                    0    -0.58961   0.59913   0.07478 
 H                    0    -0.66148  -0.65351  -0.8695 
 
 NAtoms=      3 NQM=        3 NQMF=       0 NMMI=      0 NMMIF=      0
                NMic=       0 NMicF=      0.
                    Isotopes and Nuclear Properties:
 (Nuclear quadrupole moments (NQMom) in fm**2, nuclear magnetic moments (NMagM)
  in nuclear magnetons)

  Atom         1           2           3
 IAtWgt=          16           1           1
 AtmWgt=  15.9949146   1.0078250   1.0078250
 NucSpn=           0           1           1
 AtZEff=   0.0000000   0.0000000   0.0000000
 NQMom=    0.0000000   0.0000000   0.0000000
 NMagM=    0.0000000   2.7928460   2.7928460
 AtZNuc=   8.0000000   1.0000000   1.0000000
 Leave Link  101 at Sun Feb  9 21:17:03 2020, MaxMem=   104857600 cpu:         0.2
 (Enter /usr/local/gaussian09d01/g09/l103.exe)

 GradGradGradGradGradGradGradGradGradGradGradGradGradGradGradGradGradGrad
 Berny optimization.
 Initialization pass.
 Trust Radius=1.00D-01 FncErr=1.00D-07 GrdErr=1.00D-07
 Number of steps in this run=      2 maximum allowed number of steps=      2.
 GradGradGradGradGradGradGradGradGradGradGradGradGradGradGradGradGradGrad

 Leave Link  103 at Sun Feb  9 21:17:03 2020, MaxMem=   104857600 cpu:         0.0
 (Enter /usr/local/gaussian09d01/g09/l202.exe)
                          Input orientation:                          
 ---------------------------------------------------------------------
 Center     Atomic      Atomic             Coordinates (Angstroms)
 Number     Number       Type             X           Y           Z
 ---------------------------------------------------------------------
      1          8           0       -1.158815    0.003416   -0.397360
      2          1           0       -0.589605    0.599133    0.074779
      3          1           0       -0.661480   -0.653506   -0.869504
 ---------------------------------------------------------------------
                    Distance matrix (angstroms):
                    1          2          3
     1  O    0.000000
     2  H    0.949628   0.000000
     3  H    0.949636   1.570331   0.000000
 Symmetry turned off by external request.
 Stoichiometry    H2O
 Rotational constants (GHZ):    989.5114765    406.7051390    288.2356492
 Leave Link  202 at Sun Feb  9 21:17:03 2020, MaxMem=   104857600 cpu:         0.0
 (Enter /usr/local/gaussian09d01/g09/l301.exe)
 Standard basis: 6-31G (6D, 7F)
 Ernie: Thresh=  0.10000D-02 Tol=  0.10000D-05 Strict=F.
    13 basis functions,    30 primitive gaussians,    13 cartesian basis functions
     5 alpha electrons        5 beta electrons
       nuclear repulsion energy         9.2528953842 Hartrees.
 IExCor=    0 DFT=F Ex=HF Corr=None ExCW=0 ScaHFX=  1.000000
 ScaDFX=  1.000000  1.000000  1.000000  1.000000 ScalE2=  1.000000  1.000000
 IRadAn=      0 IRanWt=     -1 IRanGd=            0 ICorTp=0 IEmpDi=  4
 NAtoms=    3 NActive=    3 NUniq=    3 SFac= 1.00D+00 NAtFMM=   60 NAOKFM=F Big=F
 Integral buffers will be    131072 words long.
 Raffenetti 1 integral format.
 Two-electron integral symmetry is turned off.
 Leave Link  301 at Sun Feb  9 21:17:03 2020, MaxMem=   104857600 cpu:         0.1
 (Enter /usr/local/gaussian09d01/g09/l302.exe)
 NPDir=0 NMtPBC=     1 NCelOv=     1 NCel=       1 NClECP=     1 NCelD=      1
         NCelK=      1 NCelE2=     1 NClLst=     1 CellRange=     0.0.
 One-electron integrals computed using PRISM.
 NBasis=    13 RedAO= T EigKep=  6.86D-02  NBF=    13
 NBsUse=    13 1.00D-06 EigRej= -1.00D+00 NBFU=    13
 Leave Link  302 at Sun Feb  9 21:17:03 2020, MaxMem=   104857600 cpu:         0.2
 (Enter /usr/local/gaussian09d01/g09/l303.exe)
 DipDrv:  MaxL=1.
 Leave Link  303 at Sun Feb  9 21:17:03 2020, MaxMem=   104857600 cpu:         0.1
 (Enter /usr/local/gaussian09d01/g09/l401.exe)
 Initial guess from the checkpoint file:  "h2o_MO.chk"
 B after Tr=     0.000000    0.000000    0.000000
         Rot=    1.000000    0.000000    0.000000    0.000000 Ang=   0.00 deg.
 Guess basis will be translated and rotated to current coordinates.
 JPrj=2 DoOrth=T DoCkMO=T.
 Leave Link  401 at Sun Feb  9 21:17:04 2020, MaxMem=   104857600 cpu:         0.2
 (Enter /usr/local/gaussian09d01/g09/l502.exe)
 Closed shell SCF:
 Using DIIS extrapolation, IDIIS=  1040.
 Two-electron integral symmetry not used.
 Keep R1 ints in memory in canonical form, NReq=829048.
 IVT=       20131 IEndB=       20131 NGot=   104857600 MDV=   104833284
 LenX=   104833284 LenY=   104832402
 Requested convergence on RMS density matrix=1.00D-08 within 128 cycles.
 Requested convergence on MAX density matrix=1.00D-06.
 Requested convergence on             energy=1.00D-06.
 No special actions if energy rises.
 FoFCou: FMM=F IPFlag=           0 FMFlag=           0 FMFlg1=           0
         NFxFlg=           0 DoJE=F BraDBF=F KetDBF=F FulRan=T
         wScrn=  0.000000 ICntrl=     600 IOpCl=  0 I1Cent=           0 NGrid=           0
         NMat0=    1 NMatS0=     91 NMatT0=    0 NMatD0=    1 NMtDS0=    0 NMtDT0=    0
 Symmetry not used in FoFCou.

 Cycle   1  Pass 1  IDiag  1:
 E= -75.9853591692393    
 DIIS: error= 4.84D-10 at cycle   1 NSaved=   1.
 NSaved= 1 IEnMin= 1 EnMin= -75.9853591692393     IErMin= 1 ErrMin= 4.84D-10
 ErrMax= 4.84D-10  0.00D+00 EMaxC= 1.00D-01 BMatC= 3.15D-18 BMatP= 3.15D-18
 IDIUse=1 WtCom= 1.00D+00 WtEn= 0.00D+00
 Coeff-Com:  0.100D+01
 Coeff:      0.100D+01
 Gap=     0.705 Goal=   None    Shift=    0.000
 Skip diagonalization as Alpha Fock matrix is already diagonal.
 RMSDP=0.00D+00 MaxDP=0.00D+00              OVMax= 0.00D+00

 SCF Done:  E(RHF) =  -75.9853591692     A.U. after    1 cycles
            NFock=  1  Conv=0.00D+00     -V/T= 1.9996
 KE= 7.601465216916D+01 PE=-1.991333048245D+02 EE= 3.788039810193D+01
 Leave Link  502 at Sun Feb  9 21:17:04 2020, MaxMem=   104857600 cpu:         0.1
 (Enter /usr/local/gaussian09d01/g09/l508.exe)
 QCSCF skips out because SCF is already converged.
 Leave Link  508 at Sun Feb  9 21:17:04 2020, MaxMem=   104857600 cpu:         0.0
 (Enter /usr/local/gaussian09d01/g09/l801.exe)
 Range of M.O.s used for correlation:     1    13
 NBasis=    13 NAE=     5 NBE=     5 NFC=     0 NFV=     0
 NROrb=     13 NOA=     5 NOB=     5 NVA=     8 NVB=     8
 Leave Link  801 at Sun Feb  9 21:17:04 2020, MaxMem=   104857600 cpu:         0.1
 (Enter /usr/local/gaussian09d01/g09/l1101.exe)
 Using compressed storage, NAtomX=     3.
 Will process      4 centers per pass.
 Leave Link 1101 at Sun Feb  9 21:17:04 2020, MaxMem=   104857600 cpu:         0.2
 (Enter /usr/local/gaussian09d01/g09/l1102.exe)
 Symmetrizing basis deriv contribution to polar:
 IMax=3 JMax=2 DiffMx= 0.00D+00
 Leave Link 1102 at Sun Feb  9 21:17:04 2020, MaxMem=   104857600 cpu:         0.1
 (Enter /usr/local/gaussian09d01/g09/l1110.exe)
 Forming Gx(P) for the SCF density, NAtomX=     3.
 Integral derivatives from FoFJK, PRISM(SPDF).
 Do as many integral derivatives as possible in FoFJK.
 G2DrvN: MDV=     104857472.
 G2DrvN: will do     4 centers at a time, making    1 passes.
 Calling FoFCou, ICntrl=  3107 FMM=F I1Cent=   0 AccDes= 0.00D+00.
 FoFJK:  IHMeth= 1 ICntrl=    3107 DoSepK=F KAlg= 0 I1Cent=   0 FoldK=F
 IRaf=         0 NMat=   1 IRICut=       1 DoRegI=T DoRafI=F ISym2E= 0.
 FoFCou: FMM=F IPFlag=           0 FMFlag=      100000 FMFlg1=           0
         NFxFlg=           0 DoJE=F BraDBF=F KetDBF=F FulRan=T
         wScrn=  0.000000 ICntrl=    3107 IOpCl=  0 I1Cent=           0 NGrid=           0
         NMat0=    1 NMatS0=      1 NMatT0=    0 NMatD0=    1 NMtDS0=    0 NMtDT0=    0
 Symmetry not used in FoFCou.
 End of G2Drv F.D. properties file   721 does not exist.
 End of G2Drv F.D. properties file   722 does not exist.
 End of G2Drv F.D. properties file   788 does not exist.
 Leave Link 1110 at Sun Feb  9 21:17:04 2020, MaxMem=   104857600 cpu:         0.2
 (Enter /usr/local/gaussian09d01/g09/l1002.exe)
 Minotr:  Closed shell wavefunction.
          IDoAtm=111
          Direct CPHF calculation.
          Differentiating once with respect to electric field.
                with respect to dipole field.
          Differentiating once with respect to nuclear coordinates.
          Requested convergence is 1.0D-08 RMS, and 1.0D-07 maximum.
          Secondary convergence is 1.0D-12 RMS, and 1.0D-12 maximum.
          NewPWx=T KeepS1=F KeepF1=F KeepIn=T MapXYZ=F SortEE=F KeepMc=T.
          MDV=     104857553 using IRadAn=       2.
 Keep R1 ints in memory in canonical form, NReq=811662.
 FoFCou: FMM=F IPFlag=           0 FMFlag=           0 FMFlg1=           0
         NFxFlg=           0 DoJE=F BraDBF=F KetDBF=F FulRan=T
         wScrn=  0.000000 ICntrl=     600 IOpCl=  0 I1Cent=           0 NGrid=           0
         NMat0=    1 NMatS0=     91 NMatT0=    0 NMatD0=    1 NMtDS0=    0 NMtDT0=    0
 Symmetry not used in FoFCou.
          Solving linear equations simultaneously, MaxMat=       0.
          There are    12 degrees of freedom in the 1st order CPHF.  IDoFFX=6 NUNeed=     3.
      9 vectors produced by pass  0 Test12= 3.33D-16 8.33D-09 XBig12= 8.01D-01 6.34D-01.
 AX will form     9 AO Fock derivatives at one time.
      9 vectors produced by pass  1 Test12= 3.33D-16 8.33D-09 XBig12= 3.03D-02 1.00D-01.
      9 vectors produced by pass  2 Test12= 3.33D-16 8.33D-09 XBig12= 1.00D-04 4.96D-03.
      8 vectors produced by pass  3 Test12= 3.33D-16 8.33D-09 XBig12= 5.99D-07 3.76D-04.
      4 vectors produced by pass  4 Test12= 3.33D-16 8.33D-09 XBig12= 1.73D-09 2.68D-05.
      1 vectors produced by pass  5 Test12= 3.33D-16 8.33D-09 XBig12= 2.07D-13 4.41D-07.
 InvSVY:  IOpt=1 It=  1 EMax= 6.66D-16
 Solved reduced A of dimension    40 with     9 vectors.
 FullF1:  Do perturbations    1 to     3.
 Isotropic polarizability for W=    0.000000        3.96 Bohr**3.
 End of Minotr F.D. properties file   721 does not exist.
 End of Minotr F.D. properties file   722 does not exist.
 End of Minotr F.D. properties file   788 does not exist.
 Leave Link 1002 at Sun Feb  9 21:17:04 2020, MaxMem=   104857600 cpu:         0.2
 (Enter /usr/local/gaussian09d01/g09/l601.exe)
 Copying SCF densities to generalized density rwf, IOpCl= 0 IROHF=0.

 **********************************************************************

            Population analysis using the SCF density.

 **********************************************************************

 Alpha  occ. eigenvalues --  -20.55349  -1.35253  -0.72638  -0.54824  -0.49830
 Alpha virt. eigenvalues --    0.20699   0.30291   1.10546   1.16122   1.16717
 Alpha virt. eigenvalues --    1.20464   1.38894   1.67611
          Condensed to atoms (all electrons):
               1          2          3
     1  O    8.283345   0.263947   0.263947
     2  H    0.263947   0.358350  -0.027916
     3  H    0.263947  -0.027916   0.358349
 Mulliken charges:
               1
     1  O   -0.811239
     2  H    0.405619
     3  H    0.405620
 Sum of Mulliken charges =   0.00000
 Mulliken charges with hydrogens summed into heavy atoms:
               1
     1  O    0.000000
 APT charges:
               1
     1  O   -0.656354
     2  H    0.328178
     3  H    0.328176
 Sum of APT charges =   0.00000
 APT charges with hydrogens summed into heavy atoms:
               1
     1  O    0.000000
 Electronic spatial extent (au):  <R**2>=             68.0428
 Charge=              0.0000 electrons
 Dipole moment (field-independent basis, Debye):
    X=              2.4965    Y=             -0.1433    Z=              0.0000  Tot=              2.5006
 Quadrupole moment (field-independent basis, Debye-Ang):
   XX=            -11.5516   YY=             -5.0930   ZZ=             -6.0025
   XY=              0.2133   XZ=             -0.9013   YZ=              1.6384
 Traceless Quadrupole moment (field-independent basis, Debye-Ang):
   XX=             -4.0026   YY=              2.4560   ZZ=              1.5466
   XY=              0.2133   XZ=             -0.9013   YZ=              1.6384
 Octapole moment (field-independent basis, Debye-Ang**2):
  XXX=             29.6553  YYY=             -0.1295  ZZZ=              7.1554  XYY=              6.3472
  XXY=             -0.2443  XXZ=              4.4480  XZZ=              7.3860  YZZ=             -1.3062
  YYZ=              1.9664  XYZ=             -1.3250
 Hexadecapole moment (field-independent basis, Debye-Ang**3):
 XXXX=            -65.7286 YYYY=             -5.6442 ZZZZ=            -11.2964 XXXY=              0.2696
 XXXZ=            -11.6174 YYYX=              0.1057 YYYZ=              0.1316 ZZZX=             -8.5428
 ZZZY=              0.6441 XXYY=             -9.4726 XXZZ=            -11.7448 YYZZ=             -2.3964
 XXYZ=              1.0669 YYXZ=             -2.4723 ZZXY=              1.0556
 N-N= 9.252895384209D+00 E-N=-1.991333048245D+02  KE= 7.601465216916D+01
  Exact polarizability:   3.846   0.052   4.744   0.144   2.504   3.301
 Approx polarizability:   2.798   0.039   3.482   0.107   1.869   2.405
 No NMR shielding tensors so no spin-rotation constants.
 Leave Link  601 at Sun Feb  9 21:17:04 2020, MaxMem=   104857600 cpu:         0.2
 (Enter /usr/local/gaussian09d01/g09/l701.exe)
 Compute integral second derivatives.
 ... and contract with generalized density number  0.
 Leave Link  701 at Sun Feb  9 21:17:04 2020, MaxMem=   104857600 cpu:         0.2
 (Enter /usr/local/gaussian09d01/g09/l702.exe)
 L702 exits ... SP integral derivatives will be done elsewhere.
 Leave Link  702 at Sun Feb  9 21:17:04 2020, MaxMem=   104857600 cpu:         0.1
 (Enter /usr/local/gaussian09d01/g09/l703.exe)
 Compute integral second derivatives, UseDBF=F ICtDFT=           0.
 Integral derivatives from FoFJK, PRISM(SPDF).
 Calling FoFJK, ICntrl=    100127 FMM=F ISym2X=0 I1Cent= 0 IOpClX= 0 NMat=1 NMatS=1 NMatT=0.
 FoFJK:  IHMeth= 1 ICntrl=  100127 DoSepK=F KAlg= 0 I1Cent=   0 FoldK=F
 IRaf=         0 NMat=   1 IRICut=       1 DoRegI=T DoRafI=F ISym2E= 0.
 FoFCou: FMM=F IPFlag=           0 FMFlag=      100000 FMFlg1=         800
         NFxFlg=           0 DoJE=F BraDBF=F KetDBF=F FulRan=T
         wScrn=  0.000000 ICntrl=  100127 IOpCl=  0 I1Cent=           0 NGrid=           0
         NMat0=    1 NMatS0=      1 NMatT0=    0 NMatD0=    1 NMtDS0=    0 NMtDT0=    0
 Symmetry not used in FoFCou.
 Leave Link  703 at Sun Feb  9 21:17:04 2020, MaxMem=   104857600 cpu:         0.4
 (Enter /usr/local/gaussian09d01/g09/l716.exe)
 Dipole        = 9.82188472D-01-5.63613328D-02-2.31939648D-06
 Polarizability= 3.84561140D+00 5.16576622D-02 4.74355686D+00
                 1.43662370D-01 2.50417067D+00 3.30140767D+00
 HyperPolar    = 1.22266553D+01 9.63051423D-01 1.44031278D+01
                -2.49141949D+00 1.15560568D+00 1.00372963D+01
                -1.15590574D+00 8.69466462D+00-4.99051928D-01
                -7.06920721D-05
 -------------------------------------------------------------------
 Center     Atomic                   Forces (Hartrees/Bohr)
 Number     Number              X              Y              Z
 -------------------------------------------------------------------
      1        8           0.000002292   -0.000006076   -0.000004466
      2        1           0.000001345    0.000002345    0.000001820
      3        1          -0.000003637    0.000003731    0.000002646
 -------------------------------------------------------------------
 Cartesian Forces:  Max     0.000006076 RMS     0.000003446
 Z-matrix is all fixed cartesians, so copy forces.
 Force constants in Cartesian coordinates: 
                1             2             3             4             5 
      1  0.439322D+00
      2  0.502834D-02  0.526409D+00
      3  0.227186D-01  0.395738D+00  0.298325D+00
      4 -0.241875D+00 -0.225465D+00 -0.179834D+00  0.227686D+00
      5 -0.165340D+00 -0.241001D+00 -0.188208D+00  0.197354D+00  0.260715D+00
      6 -0.134658D+00 -0.190800D+00 -0.149164D+00  0.158101D+00  0.204401D+00
      7 -0.197447D+00  0.220436D+00  0.157115D+00  0.141891D-01 -0.320139D-01
      8  0.160312D+00 -0.285408D+00 -0.207530D+00  0.281106D-01 -0.197141D-01
      9  0.111940D+00 -0.204938D+00 -0.149160D+00  0.217330D-01 -0.161930D-01
                6             7             8             9 
      6  0.160394D+00
      7 -0.234423D-01  0.183258D+00
      8 -0.136008D-01 -0.188422D+00  0.305123D+00
      9 -0.112294D-01 -0.133673D+00  0.221131D+00  0.160390D+00
 Leave Link  716 at Sun Feb  9 21:17:04 2020, MaxMem=   104857600 cpu:         0.1
 (Enter /usr/local/gaussian09d01/g09/l103.exe)

 GradGradGradGradGradGradGradGradGradGradGradGradGradGradGradGradGradGrad
 Berny optimization.
 Search for a local minimum.
 Step number   1 out of a maximum of    2
 All quantities printed in internal units (Hartrees-Bohrs-Radians)
 Second derivative matrix not updated -- unit matrix used.
 ITU=  0
 Angle between quadratic step and forces=   0.00 degrees.
 Linear search not attempted -- first point.
 TrRot=  0.000000  0.000000  0.000000  0.000000  0.000000  0.000000
 Variable       Old X    -DE/DX   Delta X   Delta X   Delta X     New X
                                 (Linear)    (Quad)   (Total)
    X1       -2.18984   0.00000   0.00000   0.00000   0.00000  -2.18984
    Y1        0.00646  -0.00001   0.00000  -0.00001  -0.00001   0.00645
    Z1       -0.75090   0.00000   0.00000   0.00000   0.00000  -0.75091
    X2       -1.11419   0.00000   0.00000   0.00000   0.00000  -1.11419
    Y2        1.13220   0.00000   0.00000   0.00000   0.00000   1.13220
    Z2        0.14131   0.00000   0.00000   0.00000   0.00000   0.14131
    X3       -1.25002   0.00000   0.00000   0.00000   0.00000  -1.25002
    Y3       -1.23495   0.00000   0.00000   0.00000   0.00000  -1.23494
    Z3       -1.64313   0.00000   0.00000   0.00000   0.00000  -1.64312
         Item               Value     Threshold  Converged?
 Maximum Force            0.000006     0.000450     YES
 RMS     Force            0.000003     0.000300     YES
 Maximum Displacement     0.000006     0.001800     YES
 RMS     Displacement     0.000003     0.001200     YES
 Predicted change in Energy=-5.344239D-11
 Optimization completed.
    -- Stationary point found.
 GradGradGradGradGradGradGradGradGradGradGradGradGradGradGradGradGradGrad

 Leave Link  103 at Sun Feb  9 21:17:04 2020, MaxMem=   104857600 cpu:         0.0
 (Enter /usr/local/gaussian09d01/g09/l9999.exe)

 Test job not archived.
 1\1\GINC-KA20\Freq\RHF\6-31G\H2O1\RTAKE\09-Feb-2020\0\\#p HF/6-31G gue
 ss=read scf=(xqc,maxcon=128,maxcyc=512,conver=8) freq=noraman IOp(7/8=
 20000) IOp(1/10=10) IOp(1/18=10) IOp(2/15=3) IOp(2/12=1)\\frequency ca
 lculation: 1 0 0 0 0\\0,1\O,-1.1588152614,0.0034162037,-0.3973603251\H
 ,-0.5896050354,0.5991327393,0.074778646\H,-0.6614800291,-0.6535056821,
 -0.8695043131\\Version=ES64L-G09RevD.01\HF=-75.9853592\RMSD=0.000e+00\
 RMSF=3.446e-06\Dipole=0.9821885,-0.0563613,-0.0000023\DipoleDeriv=-0.4
 455266,-0.0148004,0.0116916,-0.0147959,-0.7025338,0.203816,0.011695,0.
 2038158,-0.8210015,0.211712,-0.1074473,-0.0926143,-0.0697177,0.3623189
 ,-0.0969296,-0.0642657,-0.0985563,0.4105017,0.2338146,0.1222477,0.0809
 227,0.0845136,0.3402149,-0.1068864,0.0525707,-0.1052596,0.4104998\Pola
 r=3.8456114,0.0516577,4.7435569,0.1436624,2.5041707,3.3014077\HyperPol
 ar=12.2266553,0.9630514,14.4031278,-2.4914195,1.1556057,10.0372963,-1.
 1559057,8.6946646,-0.4990519,-0.0000707\PG=Unknown\NImag=0\\0.43932246
 ,0.00502834,0.52640924,0.02271864,0.39573842,0.29832467,-0.24187500,-0
 .22546475,-0.17983360,0.22768592,-0.16534019,-0.24100079,-0.18820796,0
 .19735413,0.26071490,-0.13465833,-0.19080013,-0.14916423,0.15810065,0.
 20440093,0.16039360,-0.19744746,0.22043641,0.15711496,0.01418908,-0.03
 201394,-0.02344232,0.18325838,0.16031185,-0.28540844,-0.20753046,0.028
 11062,-0.01971410,-0.01360079,-0.18842246,0.30512255,0.11193968,-0.204
 93829,-0.14916044,0.02173295,-0.01619296,-0.01122937,-0.13367264,0.221
 13125,0.16038981\\-0.00000229,0.00000608,0.00000447,-0.00000134,-0.000
 00235,-0.00000182,0.00000364,-0.00000373,-0.00000265\\\@


 IT IS A CAPITAL MISTAKE TO THEORIZE BEFORE ONE HAS
 DATA.  INSENSIBLY ONE BEGINS TO TWIST FACTS TO SUIT
 THEORIES RATHER THAN THEORIES TO SUIT FACTS.

                                         -- SHERLOCK HOLMES
 Job cpu time:       0 days  0 hours  0 minutes  2.8 seconds.
 File lengths (MBytes):  RWF=      5 Int=      0 D2E=      0 Chk=      1 Scr=      1
 Normal termination of Gaussian 09 at Sun Feb  9 21:17:04 2020.
